 ---------------------------------------
 #p test uhf sto-3g guess=mix output=mat
 ---------------------------------------

 ------------------------------------------------------------------
 Test001 - H2 at long distance with broken-symmetry result (1.5 A).
 ------------------------------------------------------------------
 Symbolic Z-matrix:
 Charge =  0 Multiplicity = 1

                         Standard orientation:
 ---------------------------------------------------------------------
 Center     Atomic      Atomic             Coordinates (Angstroms)
 Number     Number       Type             X           Y           Z
 ---------------------------------------------------------------------
      1          1           0        0.000000    0.000000    0.750000
      2          1           0        0.000000    0.000000   -0.750000
 ---------------------------------------------------------------------

 SCF Done:  E(UHF) = -0.957706794904     A.U. after    7 cycles

 Unable to determine electronic state:  an orbital has unidentified symmetry.
 Alpha  occ. eigenvalues --   -0.45666
 Alpha virt. eigenvalues --    0.33256
  Beta  occ. eigenvalues --   -0.45666
  Beta virt. eigenvalues --    0.33256

 Mulliken charges and spin densities:
               1          2
     1  H    0.000000   0.862525
     2  H    0.000000  -0.862525
 Sum of Mulliken charges =   0.00000   0.00000

 Dipole moment (field-independent basis, Debye):
    X=              0.0000    Y=              0.0000    Z=              0.0000  Tot=              0.0000
 Quadrupole moment (field-independent basis, Debye-Ang):
   XX=             -1.8062   YY=             -1.8062   ZZ=             -1.4512
   XY=              0.0000   XZ=              0.0000   YZ=              0.0000

 Normal termination of Gaussian DV at Tue Jun  4 11:37:02 2019.
